<?xml version="1.0"?>
<VTKFile type="UnstructuredGrid"  version="0.1"  >
<UnstructuredGrid>
<Piece  NumberOfPoints="1089" NumberOfCells="2048">
<Points>
<DataArray  type="Float64"  NumberOfComponents="3"  format="ascii">0 0 0  0.03125 0 0  0.0625 0 0  0.09375 0 0  0.125 0 0  0.15625 0 0  0.1875 0 0  0.21875 0 0  0.25 0 0  0.28125 0 0  0.3125 0 0  0.34375 0 0  0.375 0 0  0.40625 0 0  0.4375 0 0  0.46875 0 0  0.5 0 0  0.53125 0 0  0.5625 0 0  0.59375 0 0  0.625 0 0  0.65625 0 0  0.6875 0 0  0.71875 0 0  0.75 0 0  0.78125 0 0  0.8125 0 0  0.84375 0 0  0.875 0 0  0.90625 0 0  0.9375 0 0  0.96875 0 0  1 0 0  0 0.03125 0  0.03125 0.03125 0  0.0625 0.03125 0  0.09375 0.03125 0  0.125 0.03125 0  0.15625 0.03125 0  0.1875 0.03125 0  0.21875 0.03125 0  0.25 0.03125 0  0.28125 0.03125 0  0.3125 0.03125 0  0.34375 0.03125 0  0.375 0.03125 0  0.40625 0.03125 0  0.4375 0.03125 0  0.46875 0.03125 0  0.5 0.03125 0  0.53125 0.03125 0  0.5625 0.03125 0  0.59375 0.03125 0  0.625 0.03125 0  0.65625 0.03125 0  0.6875 0.03125 0  0.71875 0.03125 0  0.75 0.03125 0  0.78125 0.03125 0  0.8125 0.03125 0  0.84375 0.03125 0  0.875 0.03125 0  0.90625 0.03125 0  0.9375 0.03125 0  0.96875 0.03125 0  1 0.03125 0  0 0.0625 0  0.03125 0.0625 0  0.0625 0.0625 0  0.09375 0.0625 0  0.125 0.0625 0  0.15625 0.0625 0  0.1875 0.0625 0  0.21875 0.0625 0  0.25 0.0625 0  0.28125 0.0625 0  0.3125 0.0625 0  0.34375 0.0625 0  0.375 0.0625 0  0.40625 0.0625 0  0.4375 0.0625 0  0.46875 0.0625 0  0.5 0.0625 0  0.53125 0.0625 0  0.5625 0.0625 0  0.59375 0.0625 0  0.625 0.0625 0  0.65625 0.0625 0  0.6875 0.0625 0  0.71875 0.0625 0  0.75 0.0625 0  0.78125 0.0625 0  0.8125 0.0625 0  0.84375 0.0625 0  0.875 0.0625 0  0.90625 0.0625 0  0.9375 0.0625 0  0.96875 0.0625 0  1 0.0625 0  0 0.09375 0  0.03125 0.09375 0  0.0625 0.09375 0  0.09375 0.09375 0  0.125 0.09375 0  0.15625 0.09375 0  0.1875 0.09375 0  0.21875 0.09375 0  0.25 0.09375 0  0.28125 0.09375 0  0.3125 0.09375 0  0.34375 0.09375 0  0.375 0.09375 0  0.40625 0.09375 0  0.4375 0.09375 0  0.46875 0.09375 0  0.5 0.09375 0  0.53125 0.09375 0  0.5625 0.09375 0  0.59375 0.09375 0  0.625 0.09375 0  0.65625 0.09375 0  0.6875 0.09375 0  0.71875 0.09375 0  0.75 0.09375 0  0.78125 0.09375 0  0.8125 0.09375 0  0.84375 0.09375 0  0.875 0.09375 0  0.90625 0.09375 0  0.9375 0.09375 0  0.96875 0.09375 0  1 0.09375 0  0 0.125 0  0.03125 0.125 0  0.0625 0.125 0  0.09375 0.125 0  0.125 0.125 0  0.15625 0.125 0  0.1875 0.125 0  0.21875 0.125 0  0.25 0.125 0  0.28125 0.125 0  0.3125 0.125 0  0.34375 0.125 0  0.375 0.125 0  0.40625 0.125 0  0.4375 0.125 0  0.46875 0.125 0  0.5 0.125 0  0.53125 0.125 0  0.5625 0.125 0  0.59375 0.125 0  0.625 0.125 0  0.65625 0.125 0  0.6875 0.125 0  0.71875 0.125 0  0.75 0.125 0  0.78125 0.125 0  0.8125 0.125 0  0.84375 0.125 0  0.875 0.125 0  0.90625 0.125 0  0.9375 0.125 0  0.96875 0.125 0  1 0.125 0  0 0.15625 0  0.03125 0.15625 0  0.0625 0.15625 0  0.09375 0.15625 0  0.125 0.15625 0  0.15625 0.15625 0  0.1875 0.15625 0  0.21875 0.15625 0  0.25 0.15625 0  0.28125 0.15625 0  0.3125 0.15625 0  0.34375 0.15625 0  0.375 0.15625 0  0.40625 0.15625 0  0.4375 0.15625 0  0.46875 0.15625 0  0.5 0.15625 0  0.53125 0.15625 0  0.5625 0.15625 0  0.59375 0.15625 0  0.625 0.15625 0  0.65625 0.15625 0  0.6875 0.15625 0  0.71875 0.15625 0  0.75 0.15625 0  0.78125 0.15625 0  0.8125 0.15625 0  0.84375 0.15625 0  0.875 0.15625 0  0.90625 0.15625 0  0.9375 0.15625 0  0.96875 0.15625 0  1 0.15625 0  0 0.1875 0  0.03125 0.1875 0  0.0625 0.1875 0  0.09375 0.1875 0  0.125 0.1875 0  0.15625 0.1875 0  0.1875 0.1875 0  0.21875 0.1875 0  0.25 0.1875 0  0.28125 0.1875 0  0.3125 0.1875 0  0.34375 0.1875 0  0.375 0.1875 0  0.40625 0.1875 0  0.4375 0.1875 0  0.46875 0.1875 0  0.5 0.1875 0  0.53125 0.1875 0  0.5625 0.1875 0  0.59375 0.1875 0  0.625 0.1875 0  0.65625 0.1875 0  0.6875 0.1875 0  0.71875 0.1875 0  0.75 0.1875 0  0.78125 0.1875 0  0.8125 0.1875 0  0.84375 0.1875 0  0.875 0.1875 0  0.90625 0.1875 0  0.9375 0.1875 0  0.96875 0.1875 0  1 0.1875 0  0 0.21875 0  0.03125 0.21875 0  0.0625 0.21875 0  0.09375 0.21875 0  0.125 0.21875 0  0.15625 0.21875 0  0.1875 0.21875 0  0.21875 0.21875 0  0.25 0.21875 0  0.28125 0.21875 0  0.3125 0.21875 0  0.34375 0.21875 0  0.375 0.21875 0  0.40625 0.21875 0  0.4375 0.21875 0  0.46875 0.21875 0  0.5 0.21875 0  0.53125 0.21875 0  0.5625 0.21875 0  0.59375 0.21875 0  0.625 0.21875 0  0.65625 0.21875 0  0.6875 0.21875 0  0.71875 0.21875 0  0.75 0.21875 0  0.78125 0.21875 0  0.8125 0.21875 0  0.84375 0.21875 0  0.875 0.21875 0  0.90625 0.21875 0  0.9375 0.21875 0  0.96875 0.21875 0  1 0.21875 0  0 0.25 0  0.03125 0.25 0  0.0625 0.25 0  0.09375 0.25 0  0.125 0.25 0  0.15625 0.25 0  0.1875 0.25 0  0.21875 0.25 0  0.25 0.25 0  0.28125 0.25 0  0.3125 0.25 0  0.34375 0.25 0  0.375 0.25 0  0.40625 0.25 0  0.4375 0.25 0  0.46875 0.25 0  0.5 0.25 0  0.53125 0.25 0  0.5625 0.25 0  0.59375 0.25 0  0.625 0.25 0  0.65625 0.25 0  0.6875 0.25 0  0.71875 0.25 0  0.75 0.25 0  0.78125 0.25 0  0.8125 0.25 0  0.84375 0.25 0  0.875 0.25 0  0.90625 0.25 0  0.9375 0.25 0  0.96875 0.25 0  1 0.25 0  0 0.28125 0  0.03125 0.28125 0  0.0625 0.28125 0  0.09375 0.28125 0  0.125 0.28125 0  0.15625 0.28125 0  0.1875 0.28125 0  0.21875 0.28125 0  0.25 0.28125 0  0.28125 0.28125 0  0.3125 0.28125 0  0.34375 0.28125 0  0.375 0.28125 0  0.40625 0.28125 0  0.4375 0.28125 0  0.46875 0.28125 0  0.5 0.28125 0  0.53125 0.28125 0  0.5625 0.28125 0  0.59375 0.28125 0  0.625 0.28125 0  0.65625 0.28125 0  0.6875 0.28125 0  0.71875 0.28125 0  0.75 0.28125 0  0.78125 0.28125 0  0.8125 0.28125 0  0.84375 0.28125 0  0.875 0.28125 0  0.90625 0.28125 0  0.9375 0.28125 0  0.96875 0.28125 0  1 0.28125 0  0 0.3125 0  0.03125 0.3125 0  0.0625 0.3125 0  0.09375 0.3125 0  0.125 0.3125 0  0.15625 0.3125 0  0.1875 0.3125 0  0.21875 0.3125 0  0.25 0.3125 0  0.28125 0.3125 0  0.3125 0.3125 0  0.34375 0.3125 0  0.375 0.3125 0  0.40625 0.3125 0  0.4375 0.3125 0  0.46875 0.3125 0  0.5 0.3125 0  0.53125 0.3125 0  0.5625 0.3125 0  0.59375 0.3125 0  0.625 0.3125 0  0.65625 0.3125 0  0.6875 0.3125 0  0.71875 0.3125 0  0.75 0.3125 0  0.78125 0.3125 0  0.8125 0.3125 0  0.84375 0.3125 0  0.875 0.3125 0  0.90625 0.3125 0  0.9375 0.3125 0  0.96875 0.3125 0  1 0.3125 0  0 0.34375 0  0.03125 0.34375 0  0.0625 0.34375 0  0.09375 0.34375 0  0.125 0.34375 0  0.15625 0.34375 0  0.1875 0.34375 0  0.21875 0.34375 0  0.25 0.34375 0  0.28125 0.34375 0  0.3125 0.34375 0  0.34375 0.34375 0  0.375 0.34375 0  0.40625 0.34375 0  0.4375 0.34375 0  0.46875 0.34375 0  0.5 0.34375 0  0.53125 0.34375 0  0.5625 0.34375 0  0.59375 0.34375 0  0.625 0.34375 0  0.65625 0.34375 0  0.6875 0.34375 0  0.71875 0.34375 0  0.75 0.34375 0  0.78125 0.34375 0  0.8125 0.34375 0  0.84375 0.34375 0  0.875 0.34375 0  0.90625 0.34375 0  0.9375 0.34375 0  0.96875 0.34375 0  1 0.34375 0  0 0.375 0  0.03125 0.375 0  0.0625 0.375 0  0.09375 0.375 0  0.125 0.375 0  0.15625 0.375 0  0.1875 0.375 0  0.21875 0.375 0  0.25 0.375 0  0.28125 0.375 0  0.3125 0.375 0  0.34375 0.375 0  0.375 0.375 0  0.40625 0.375 0  0.4375 0.375 0  0.46875 0.375 0  0.5 0.375 0  0.53125 0.375 0  0.5625 0.375 0  0.59375 0.375 0  0.625 0.375 0  0.65625 0.375 0  0.6875 0.375 0  0.71875 0.375 0  0.75 0.375 0  0.78125 0.375 0  0.8125 0.375 0  0.84375 0.375 0  0.875 0.375 0  0.90625 0.375 0  0.9375 0.375 0  0.96875 0.375 0  1 0.375 0  0 0.40625 0  0.03125 0.40625 0  0.0625 0.40625 0  0.09375 0.40625 0  0.125 0.40625 0  0.15625 0.40625 0  0.1875 0.40625 0  0.21875 0.40625 0  0.25 0.40625 0  0.28125 0.40625 0  0.3125 0.40625 0  0.34375 0.40625 0  0.375 0.40625 0  0.40625 0.40625 0  0.4375 0.40625 0  0.46875 0.40625 0  0.5 0.40625 0  0.53125 0.40625 0  0.5625 0.40625 0  0.59375 0.40625 0  0.625 0.40625 0  0.65625 0.40625 0  0.6875 0.40625 0  0.71875 0.40625 0  0.75 0.40625 0  0.78125 0.40625 0  0.8125 0.40625 0  0.84375 0.40625 0  0.875 0.40625 0  0.90625 0.40625 0  0.9375 0.40625 0  0.96875 0.40625 0  1 0.40625 0  0 0.4375 0  0.03125 0.4375 0  0.0625 0.4375 0  0.09375 0.4375 0  0.125 0.4375 0  0.15625 0.4375 0  0.1875 0.4375 0  0.21875 0.4375 0  0.25 0.4375 0  0.28125 0.4375 0  0.3125 0.4375 0  0.34375 0.4375 0  0.375 0.4375 0  0.40625 0.4375 0  0.4375 0.4375 0  0.46875 0.4375 0  0.5 0.4375 0  0.53125 0.4375 0  0.5625 0.4375 0  0.59375 0.4375 0  0.625 0.4375 0  0.65625 0.4375 0  0.6875 0.4375 0  0.71875 0.4375 0  0.75 0.4375 0  0.78125 0.4375 0  0.8125 0.4375 0  0.84375 0.4375 0  0.875 0.4375 0  0.90625 0.4375 0  0.9375 0.4375 0  0.96875 0.4375 0  1 0.4375 0  0 0.46875 0  0.03125 0.46875 0  0.0625 0.46875 0  0.09375 0.46875 0  0.125 0.46875 0  0.15625 0.46875 0  0.1875 0.46875 0  0.21875 0.46875 0  0.25 0.46875 0  0.28125 0.46875 0  0.3125 0.46875 0  0.34375 0.46875 0  0.375 0.46875 0  0.40625 0.46875 0  0.4375 0.46875 0  0.46875 0.46875 0  0.5 0.46875 0  0.53125 0.46875 0  0.5625 0.46875 0  0.59375 0.46875 0  0.625 0.46875 0  0.65625 0.46875 0  0.6875 0.46875 0  0.71875 0.46875 0  0.75 0.46875 0  0.78125 0.46875 0  0.8125 0.46875 0  0.84375 0.46875 0  0.875 0.46875 0  0.90625 0.46875 0  0.9375 0.46875 0  0.96875 0.46875 0  1 0.46875 0  0 0.5 0  0.03125 0.5 0  0.0625 0.5 0  0.09375 0.5 0  0.125 0.5 0  0.15625 0.5 0  0.1875 0.5 0  0.21875 0.5 0  0.25 0.5 0  0.28125 0.5 0  0.3125 0.5 0  0.34375 0.5 0  0.375 0.5 0  0.40625 0.5 0  0.4375 0.5 0  0.46875 0.5 0  0.5 0.5 0  0.53125 0.5 0  0.5625 0.5 0  0.59375 0.5 0  0.625 0.5 0  0.65625 0.5 0  0.6875 0.5 0  0.71875 0.5 0  0.75 0.5 0  0.78125 0.5 0  0.8125 0.5 0  0.84375 0.5 0  0.875 0.5 0  0.90625 0.5 0  0.9375 0.5 0  0.96875 0.5 0  1 0.5 0  0 0.53125 0  0.03125 0.53125 0  0.0625 0.53125 0  0.09375 0.53125 0  0.125 0.53125 0  0.15625 0.53125 0  0.1875 0.53125 0  0.21875 0.53125 0  0.25 0.53125 0  0.28125 0.53125 0  0.3125 0.53125 0  0.34375 0.53125 0  0.375 0.53125 0  0.40625 0.53125 0  0.4375 0.53125 0  0.46875 0.53125 0  0.5 0.53125 0  0.53125 0.53125 0  0.5625 0.53125 0  0.59375 0.53125 0  0.625 0.53125 0  0.65625 0.53125 0  0.6875 0.53125 0  0.71875 0.53125 0  0.75 0.53125 0  0.78125 0.531
[...]
<PointData  Scalars="f_2"> 
<DataArray  type="Float64"  Name="f_2"  format="ascii">0.0000000000000000e+00  0.0000000000000000e+00  0.0000000000000000e+00  0.0000000000000000e+00  0.0000000000000000e+00  0.0000000000000000e+00  0.0000000000000000e+00  0.0000000000000000e+00  0.0000000000000000e+00  0.0000000000000000e+00  0.0000000000000000e+00  0.0000000000000000e+00  0.0000000000000000e+00  0.0000000000000000e+00  0.0000000000000000e+00  0.0000000000000000e+00  0.0000000000000000e+00  0.0000000000000000e+00  0.0000000000000000e+00  0.0000000000000000e+00  0.0000000000000000e+00  0.0000000000000000e+00  0.0000000000000000e+00  0.0000000000000000e+00  0.0000000000000000e+00  0.0000000000000000e+00  0.0000000000000000e+00  0.0000000000000000e+00  0.0000000000000000e+00  0.0000000000000000e+00  0.0000000000000000e+00  0.0000000000000000e+00  0.0000000000000000e+00  1.7432104151690777e-03  1.4556258854270118e-03  1.3044181707624431e-03  1.2408213588141670e-03  1.2336075652331477e-03  1.2629287942399888e-03  1.3160867380138507e-03  1.3847888714213759e-03  1.4634106384336864e-03  1.5479128538917425e-03  1.6351837640427671e-03  1.7226601559672040e-03  1.8081357939681579e-03  1.8896965476399023e-03  1.9657372057716419e-03  2.0350215218525084e-03  2.0967502514589883e-03  2.1506064770132568e-03  2.1967558852093632e-03  2.2357914284830125e-03  2.2686238957419828e-03  2.2963282074771785e-03  2.3199564927937782e-03  2.3403219649505837e-03  2.3577426949800968e-03  2.3717120859337339e-03  2.3804318105545789e-03  2.3800981271159083e-03  2.3637629209600432e-03  2.3194754970481111e-03  2.2272070965840625e-03  2.0536644309019025e-03  1.7432104151690777e-03  3.2741547638371451e-03  2.7589407541610926e-03  2.4914715707659556e-03  2.3816861597075094e-03  2.3732868818863292e-03  2.4308079219665540e-03  2.5315965163166714e-03  2.6608053268284736e-03  2.8082676743178864e-03  2.9665629051199554e-03  3.1298461746823748e-03  3.2931824980639846e-03  3.4522243979504819e-03  3.6031272630899745e-03  3.7426213933925258e-03  3.8681671208709622e-03  3.9781212724230774e-03  4.0718498870392673e-03  4.1497392730576880e-03  4.2130839797724414e-03  4.2638584359538829e-03  4.3043987645028431e-03  4.3370250498831588e-03  4.3636199543450830e-03  4.3851493342998956e-03  4.4010672937339892e-03  4.4084910613573051e-03  4.4009522464664753e-03  4.3664129035743873e-03  4.2840471635493677e-03  4.1189839911241130e-03  3.8137160814548099e-03  3.2741547638371451e-03  4.4107213437785224e-03  3.7888030203773082e-03  3.4707577023388738e-03  3.3467055916829012e-03  3.3482108473606672e-03  3.4322085115511798e-03  3.5710987831903832e-03  3.7466038812952371e-03  3.9459489889586315e-03  4.1595013245902153e-03  4.3793480029151047e-03  4.5985041253252647e-03  4.8105660781247060e-03  5.0096885304396453e-03  5.1907851854967602e-03  5.3498498935282777e-03  5.4842853822337665e-03  5.5931302205068124e-03  5.6771018057688400e-03  5.7384215660759626e-03  5.7804423842643818e-03  5.8071367731471479e-03  5.8225129600919367e-03  5.8300024617687863e-03  5.8318146033947693e-03  5.8281902414674012e-03  5.8164116929528900e-03  5.7893303868028810e-03  5.7330372195941509e-03  5.6230885404688962e-03  5.4183622059327287e-03  5.0510820160445027e-03  4.4107213437785224e-03  5.0655666901086730e-03  4.4853820080415349e-03  4.1974650718277435e-03  4.0984067514881683e-03  4.1237059423673440e-03  4.2326039342011693e-03  4.3986962878555698e-03  4.6040924257953328e-03  4.8357680128331649e-03  5.0832971471346834e-03  5.3374875796066840e-03  5.5896493938953273e-03  5.8313474398309917e-03  6.0545413173883752e-03  6.2520177743426051e-03  6.4179876587093249e-03  6.5486818459533783e-03  6.6427708290023703e-03  6.7014724044952845e-03  6.7282964652083770e-03  6.7284740674437137e-03  6.7081888380086212e-03  6.6737452076546088e-03  6.6307690513098625e-03  6.5834620581322030e-03  6.5338452385133609e-03  6.4808411847550240e-03  6.4189527161412942e-03  6.3361746873273634e-03  6.2105901548370280e-03  6.0048016664073943e-03  5.6568605879799144e-03  5.0655666901086730e-03  5.2621822769526845e-03  4.8635259181522587e-03  4.6820615613566950e-03  4.6454129801970319e-03  4.7081790020682959e-03  4.8412942038820453e-03  5.0253875387140925e-03  5.2465986933768038e-03  5.4939141376097282e-03  5.7574694467317847e-03  6.0275137586148870e-03  6.2938936979910366e-03  6.5460075926664606e-03  6.7732082083374855e-03  6.9655932957575634e-03  7.1150346299760697e-03  7.2162019465138788e-03  7.2672981407970096e-03  7.2702790786828017e-03  7.2304783794388617e-03  7.1557343250805436e-03  7.0552432276472232e-03  6.9383905948379497e-03  6.8137421822463615e-03  6.6882569939048344e-03  6.5666647978224468e-03  6.4508591165198335e-03  6.3390886813599247e-03  6.2246597653825330e-03  6.0937526388157044e-03  5.9217659931872953e-03  5.6672794733482563e-03  5.2621822769526845e-03  5.1269856670607484e-03  5.0077330000114417e-03  4.9864990392890175e-03  5.0390623082772357e-03  5.1497595977159291e-03  5.3078569705383508e-03  5.5051934314397531e-03  5.7345894755583679e-03  5.9887179829771148e-03  6.2592814255784703e-03  6.5364549706604927e-03  6.8086493922441763e-03  7.0627079554700977e-03  7.2846465204073792e-03  7.4609478857719323e-03  7.5802391634423420e-03  7.6349844331783283e-03  7.6227245961708314e-03  7.5464778558223490e-03  7.4141693391959196e-03  7.2372737008099325e-03  7.0290785348513900e-03  6.8030156426225532e-03  6.5713767900788846e-03  6.3445256314010271e-03  6.1305399390866469e-03  5.9351204288602471e-03  5.7615783348634285e-03  5.6107257619839876e-03  5.4805011631771545e-03  5.3651391877922788e-03  5.2536200629883043e-03  5.1269856670607484e-03  4.8576239976264434e-03  5.0505533558810357e-03  5.2080512021530165e-03  5.3597677347137981e-03  5.5234033169561624e-03  5.7089033698450734e-03  5.9208897593687792e-03  6.1599570273082865e-03  6.4232280588835348e-03  6.7044480587207089e-03  6.9938702735173434e-03  7.2782227382843269e-03  7.5410901397861604e-03  7.7640183044868152e-03  7.9284745801862337e-03  8.0184684218143499e-03  8.0232652606848469e-03  7.9394153459296842e-03  7.7714350415962821e-03  7.5309155863060992e-03  7.2343870468100750e-03  6.9006517174828013e-03  6.5483518572690682e-03  6.1942894653764851e-03  5.8526570192153861e-03  5.5350584852248376e-03  5.2510893457032252e-03  5.0092844488155951e-03  4.8183658863163717e-03  4.6888751812834651e-03  4.6354399826058507e-03  4.6801275031026603e-03  4.8576239976264434e-03  4.6745749181416997e-03  5.1396091411690598e-03  5.4546969783390055e-03  5.6963706170867923e-03  5.9114909096514281e-03  6.1282307478647199e-03  6.3626533610459304e-03  6.6224843851857848e-03  6.9090583039015004e-03  7.2180789065750383e-03  7.5397014918830258e-03  7.8584643950053538e-03  8.1536748391462712e-03  8.4008391185956231e-03  8.5744650160793009e-03  8.6520159001506145e-03  8.6181409987452478e-03  8.4679029253517581e-03  8.2078843834708353e-03  7.8547880118883338e-03  7.4320851234182389e-03  6.9659183090670538e-03  6.4815206117468981e-03  6.0009603235808544e-03  5.5423991027003707e-03  5.1206007334447419e-03  4.7482929649782860e-03  4.4381137052157118e-03  4.2051363399773561e-03  4.0702753962787441e-03  4.0652140826139263e-03  4.2399332998547569e-03  4.6745749181416997e-03  4.7673793719177193e-03  5.4010352409844826e-03  5.8179069403403224e-03  6.1233937230231444e-03  6.3825155294749856e-03  6.6350492315731579e-03  6.9046273625194294e-03  7.2039669861877452e-03  7.5375331719379976e-03  7.9024642322076556e-03  8.2884174667989304e-03  8.6770710732287336e-03  9.0422063920927772e-03  9.3513497809609419e-03  9.5695988308632015e-03  9.6653961562981547e-03  9.6169241614770008e-03  9.4170806436515674e-03  9.0752096348133658e-03  8.6149416487220354e-03  8.0690403180626782e-03  7.4732045631760082e-03  6.8608321550843038e-03  6.2599616311929882e-03  5.6925717136178562e-03  5.1757013704530983e-03  4.7236803066605954e-03  4.3510107392397170e-03  4.0758775147381032e-03  3.9247234517595080e-03  3.9387945575300957e-03  4.1841361750904471e-03  4.7673793719177193e-03  5.2481953884781721e-03  5.9079929822152396e-03  6.3492958207636771e-03  6.6816040266598521e-03  6.9729243012465287e-03  7.2654481363904466e-03  7.5849475812879430e-03  7.9460785316019470e-03  8.3548641960629558e-03  8.8091365688508123e-03  9.2975988808312298e-03  9.7983982446232919e-03  1.0278498462604098e-02  1.0695348831819378e-02  1.1001902631633797e-02  1.1154756670138878e-02  1.1123472083336814e-02  1.0897960066972443e-02  1.0491086403578476e-02  9.9354608691317528e-03  9.2757840464256416e-03  8.5597546123393105e-03  7.8305855589035182e-03  7.1228918632465282e-03  6.4620661176125671e-03  5.8661615829575207e-03  5.3490770405135672e-03  4.9242556578757779e-03  4.6087587938132583e-03  4.4281827344534314e-03  4.4234148623047281e-03  4.6608075517298574e-03  5.2481953884781721e-03  6.1236663751242449e-03  6.6617261410815230e-03  7.0466994501197523e-03  7.3665285692730079e-03  7.6764630438210767e-03  8.0115478829947753e-03  8.3940240968939164e-03  8.8372900783579150e-03  9.3472969465055230e-03  9.9218583905395803e-03  1.0548383270764012e-02  1.1201007448271764e-02  1.1838820592796454e-02  1.2407331222049756e-02  1.2844799211573910e-02  1.3093257622784996e-02  1.3111518480744138e-02  1.2885649307005056e-02  1.2432723762326176e-02  1.1796281130126188e-02  1.1035474967518626e-02  1.0212287952016168e-02  9.3812153890264569e-03  8.5838663086201129e-03  7.8484746012956758e-03  7.1927150963905393e-03  6.6279330985627542e-03  6.1635318740210394e-03  5.8111682001789119e-03  5.5891545484411812e-03  5.5279859076552609e-03  5.6783589080783622e-03  6.1236663751242449e-03  7.2917888031267496e-03  7.5896788797672407e-03  7.8530197659338261e-03  8.1277046603451461e-03  8.4436289263353156e-03  8.8210161674122309e-03  9.2740042457113703e-03  9.8121506374463530e-03  1.0440038200049025e-02  1.1154964312009606e-02  1.1942932704637071e-02  1.2773947134339627e-02  1.3598728814407778e-02  1.4349748563188471e-02  1.4948904179752363e-02  1.5321769395953340e-02  1.5414844183745495e-02  1.5209652949410502e-02  1.4727877466935813e-02  1.4025300488201707e-02  1.3177240184183934e-02  1.2261474493288269e-02  1.1344658520264329e-02  1.0475481791654152e-02  9.6843821658974330e-03  8.9874397315241883e-03  8.3917216048472222e-03  7.9002476481652966e-03  7.5159477038111086e-03  7.2448665224575572e-03  7.0993266274751504e-03  7.1019674075279374e-03  7.2917888031267496e-03  8.5645684680234549e-03  8.5611730130088180e-03  8.6681733943444507e-03  8.8789211879040687e-03  9.1914674852737015e-03  9.6072142132986715e-03  1.0129766832016008e-02  1.0763434828419391e-02  1.1510724260472944e-02  1.2368206805893582e-02  1.3320620663347361e-02  1.4334174265777521e-02  1.5351583896426308e-02  1.6292508699625591e-02  1.7062470505313617e-02  1.7570339343615397e-02  1.7749950060265644e-02  1.7577990784919676e-02  1.7080634904437987e-02  1.6325965500688350e-02  1.5405579975568502e-02  1.4413069770429473e-02  1.3427063335408046e-02  1.2502916745724773e-02  1.1672672214827543e-02  1.0950079008192337e-02  1.0337052266498586e-02  9.8291262415142137e-03  9.4189677220265847e-03  9.0980317681563228e-03  8.8568003461130529e-03  8.6839566099203482e-03  8.5645684680234549e-03  9.7111656969369412e-03  9.4169959406743744e-03  9.3713846149691034e-03  9.5171115904427242e-03  9.8215075227312369e-03  1.0267731006467369e-02  1.0849083108936387e-02  1.1564648241084337e-02  1.2414811182018443e-02  1.3395465498988356e-02  1.4490411726405994e-02  1.5662859322574958e-02  1.6848903562868691e-02  1.7957324152144381e-02  1.8879489734395526e-02  1.9509629187352492e-02  1.9770303317299526e-02  1.9633706399803306e-02  1.9129712802639393e-02  1.8337024570885103e-02  1.7361406330122543e-02  1.6310211980294653e-02  1.5272413324067488e-02  1.4308981796126909e-02  1.3453072924477380e-02  1.2716058578750310e-02  1.2094969039447713e-02  1.1578343346831674e-02  1.1149275716940186e-02  1.0785577723713795e-02  1.0457240296704886e-02  1.0121011462159898e-02  9.7111656969369412e-03  1.0511386761269562e-02  1.0005960013340889e-02  9.8486125298023232e-03  9.9455028713605204e-03  1.0241683692341555e-02  1.0707044820832620e-02  1.1327350140189008e-02  1.2097824364988883e-02  1.3017269747783833e-02  1.4081118108026588e-02  1.5272651754459420e-02  1.6553246819783377e-02  1.7854726735760308e-02  1.9078640953565859e-02  2.0106754999330342e-02  2.0823177713434234e-02  2.1142492153274746e-02  2.1033483871757287e-02  2.0528273773075797e-02  1.9712677060746420e-02  1.8702145658848080e-02  1.7613537137825250e-02  1.6543001812335204e-02  1.5555407422330712e-02  1.4684655210978410e-02  1.3940413195257118e-02  1.3316251168008671e-02  1.2795774481841922e-02  1.2355343402692336e-02  1.1963182775028927e-02  1.1574887526331561e-02  1.1124764581858120e-02  1.0511386761269562e-02  1.0806926607088534e-02  1.0219837796695785e-02  1.0018676163322861e-02  1.0095598681170340e-02  1.0387118780094014e-02  1.0858012562657761e-02  1.1491106766182384e-02  1.2280090876113987e-02  1.3223120923498140e-02  1.4315466204663372e-02  1.5540325272482039e-02  1.6858622557994165e-02  1.8200927348020271e-02  1.9466466179740797e-02  2.0533711402424798e-02  2.1283079114497273e-02  2.1625992514145397e-02  2.1529559959677744e-02  2.1026248547685013e-02  2.0204110275381892e-02  1.9181980043720945e-02  1.8080235424693426e-02  1.6997827124574986e-02  1.6001259964620727e-02  1.5124889515247677e-02  1.4377888455501423e-02  1.3752648360852925e-02  1.3231049734623686e-02  1.2787100766739942e-02  1.2385705100957219e-02  1.1977505860460962e-02  1.1489123304049767e-02  1.0806926607088534e-02  1.0538288082987436e-02  1.0018449414817355e-02  9.8519338071775438e-03  9.9428284072751744e-03  1.0234872833659552e-02  1.0697105875409729e-02  1.1314726221854516e-02  1.2082588550890535e-02  1.2999296952147105e-02  1.4060284955196676e-02  1.5249085388138919e-02  1.6527590132160090e-02  1.7828323652113426e-02  1.9053511242536351e-02  2.0085270828099414e-02  2.0807483962737783e-02  2.1133869512395813e-02  2.1031931201653163e-02  2.0532510018126802e-02  1.9720563162289574e-02  1.8711327196595077e-02  1.7622032542005485e-02  1.6549539082638891e-02  1.5559470369316864e-02  1.4686331810819998e-02  1.3940184307742872e-02  1.3314828439131338e-02  1.2794040100492099e-02  1.2354403419460876e-02  1.1964535602068229e-02  1.1580725936934587e-02  1.1138464605229461e-02  1.0538288082987436e-02  9.7586742586233798e-03  9.4389923877485973e-03  9.3771187941649077e-03  9.5121755559977768e-03  9.8091734501480690e-03  1.0249767109944739e-02  1.0826260055171238e-02  1.1537087193709519e-02  1.2382292453636774e-02  1.3357787684992038e-02  1.4447836719772632e-02  1.5616583476044183e-02  1.6801382496721709e-02  1.7912219472540580e-02  1.8841083475549129e-02  1.9481783228268417e-02  1.9755319661273515e-02  1.9631580857001171e-02  1.9138138360431333e-02  1.8352145258001579e-02  1.7378967078977733e-02  1.6326614308348197e-02  1.5285324409298690e-02  1.4317425051938480e-02  1.3457162750513126e-02  1.2716624636060011e-02  1.2093264506129187e-02  1.1575932398767008e-02  1.1148122359066568e-02  1.0788339337288075e-02  1.0467798054998595e-02  1.0145331356441190e-02  9.7586742586233798e-03  8.6215779133276861e-03  8.5874154566415537e-03  8.6747216741123109e-03  8.8724589516616485e-03  9.1758906861831094e-03  9.5846095495622455e-03  1.0101022635975274e-02  1.0728666646419249e-02  1.1469658505784217e-02  1.2320629603172642e-02  1.3266931057933811e-02  1.4275963637317745e-02  1.5292026032229823e-02  1.6236275207352140e-02  1.7014985272679181e-02  1.7536472793068053e-02  1.7732596721484608e-02  1.7577140046944991e-02  1.7093375038523814e-02  1.6347421935960837e-02  1.5430349912578004e-02  1.4436546132233110e-02  1.3446208713007493e-02  1.2516393030414326e-02  1.1680522389293331e-02  1.0953262706089954e-02  1.0337076881184609e-02  9.8278941563303916e-03  9.4188691917772016e-03  9.1022877360451490e-03  8.8700924929558996e-03  8.7134553311152118e-03  8.6215779133276861e-03  7.3449937839935283e-03  7.6138686474236860e-03  7.8584779405566837e-03  8.1206166376781141e-03  8.4275678181829298e-03  8.7978532429860666e-03  9.2444835569983758e-03  9.7763004221500995e-03  1.0397555694868731e-02  1.1105674685944806e-02  1.1887353634040783e-02  1.2713872006487367e-02  1.3537604968128584e-02  1.4292561262617427e-02  1.4901382803365174e-02  1.5289026352133200e-02  1.5399903978091796e-02  1.5212494526984227e-02  1.4745437905550772e-02  1.4052440988836637e-02  1.3208228372508912e-02  1.2291362637839049e-02  1.1370104195538707e-02  1.0494906521659981e-02  9.6976610645106327e-03  8.9954265718979205e-03  8.3958571980926253e-03  7.9023777420372549e-03  7.5183823521790261e-03  7.2506832051549598e-03  7.1129477351764038e-03  7.1301110504520182e-03  7.3449937839935283e-03  6.1606893111077546e-03  6.6780117657231613e-03  7.0493193313777222e-03  7.3596950686571913e-03  7.6625464695413807e-03  7.9917031805867272e-03  8.3685963698781791e-03  8.8061246729595737e-03  9.3100565905029561e-03  9.8784219505630051e-03  1.0499341094873235e-02  1.1148165436740231e-02  1.1785508771338708e-02  1.2358261228849471e-02  1.2805315206542784e-02  1.3068088238631160e-02  1.3103442738596715e-02  1.2894632014654737e-02  1.2455917931879350e-02  1.1828898127189302e-02  1.1072126418463918e-02  1.0248245901153932e-02  9.4131806416839908e-03  8.6101416351610366e-03  7.8687049331141387e-03  7.2074607391158542e-03  6.6382967814193894e-03  6.1709541092644302e-03  5.8174189860643946e-03  5.5965166858722741e-03  5.5396412093519755e-03  5.6990370677534128e-03  6.1606893111077546e-03  5.2604868175432111e-03  5.9123465331664300e-03  6.3479128135681979e-03  6.6757157511848474e-03  6.9630964711393560e-03  7.2517740865264916e-03  7.5671914252329053e-03  7.9238218696854358e-03  8.3277070554157555e-03  8.7769893669875573e-03  9.2610594640182755e-03  9.7591306473975709e-03  1.0239443810198805e-02  1.0660565954314170e-02  1.0975922323264765e-02  1.1141544995140459e-02  1.1125338100217336e-02  1.0914852028598194e-02  1.0520592187073982e-02  9.9735129746395153e-03  9.3177541398910043e-03  8.6014944436618931e-03  7.8690800605595648e-03  7.1564306614682362e-03  6.4900518508238698e-03  5.8887608440723865e-03  5.3668885518622219e-03  4.9380867088133617e-03  4.6195279671021570e-03  4.4369317092234307e-03  4.4314111044875988e-03  4.6697388791679386e-03  5.2604868175432111e-03  4.7522045374182639e-03  5.3921920084583890e-03  5.8122293109660848e-03  6.1188339648297783e-03  6.3776593289256913e-03  6.6288281295368498e-03  6.8961691278269085e-03  7.1925571119338255e-03  7.5226814034926176e-03  7.8840731043121094e-03  8.2670266985907150e-03  8.6541019421681430e-03  9.0200750661432495e-03  9.3333030489952482e-03  9.5591949223953615e-03  9.6657087792122297e-03  9.6297192002783045e-03  9.4422893663817023e-03  9.1109267961533985e-03  8.6579484041668132e-03  8.1156233481837637e-03  7.5199471986329026e-03  6.9051273869610488e-03  6.3001676120690419e-03  5.7278847124651935e-03  5.2058884878339873e-03  4.7487954379329461e-03  4.3711566457780970e-03  4.0910182075581392e-03  3.9345138236667101e-03  3.9423753977331864e-03  4.1798300752577200e-03  4.7522045374182639e-03  4.6356134958901027e-03  5.1193438137091558e-03  5.4453830073062145e-03  5.6931702007491196e-03  5.9113084804727663e-03  6.1290127947324583e-03  6.3629874533734487e-03  6.6213997497200482e-03  6.9059726858120302e-03  7.2128555828450645e-03  7.5327752603507256e-03  7.8509698580888181e-03  8.1474810602947603e-03  8.3983921076232256e-03  8.5783918216599375e-03  8.6645500843186458e-03  8.6405417905955698e-03  8.5000865049981011e-03  8.2484197434688680e-03  7.9012569300704345e-03  7.4816527483602029e-03  7.0158944599715278e-03  6.5297372540730880e-03  6.0459017671435954e-03  5.5831249520657605e-03  5.1565496135779001e-03  4.7790450543871016e-03  4.4631484847717342e-03  4.2235759751810230e-03  4.0805658634168497e-03  4.0646623789593953e-03  4.2239788759998341e-03  4.6356134958901027e-03  4.8040346847845099e-03  5.0232202740703473e-03  5.1965493384808275e-03  5.3576362272814444e-03  5.5265718240056182e-0