<?xml version="1.0"?>
<VTKFile type="UnstructuredGrid"  version="0.1"  >
<UnstructuredGrid>
<Piece  NumberOfPoints="1089" NumberOfCells="2048">
<Points>
<DataArray  type="Float64"  NumberOfComponents="3"  format="ascii">0 0 0  0.03125 0 0  0.0625 0 0  0.09375 0 0  0.125 0 0  0.15625 0 0  0.1875 0 0  0.21875 0 0  0.25 0 0  0.28125 0 0  0.3125 0 0  0.34375 0 0  0.375 0 0  0.40625 0 0  0.4375 0 0  0.46875 0 0  0.5 0 0  0.53125 0 0  0.5625 0 0  0.59375 0 0  0.625 0 0  0.65625 0 0  0.6875 0 0  0.71875 0 0  0.75 0 0  0.78125 0 0  0.8125 0 0  0.84375 0 0  0.875 0 0  0.90625 0 0  0.9375 0 0  0.96875 0 0  1 0 0  0 0.03125 0  0.03125 0.03125 0  0.0625 0.03125 0  0.09375 0.03125 0  0.125 0.03125 0  0.15625 0.03125 0  0.1875 0.03125 0  0.21875 0.03125 0  0.25 0.03125 0  0.28125 0.03125 0  0.3125 0.03125 0  0.34375 0.03125 0  0.375 0.03125 0  0.40625 0.03125 0  0.4375 0.03125 0  0.46875 0.03125 0  0.5 0.03125 0  0.53125 0.03125 0  0.5625 0.03125 0  0.59375 0.03125 0  0.625 0.03125 0  0.65625 0.03125 0  0.6875 0.03125 0  0.71875 0.03125 0  0.75 0.03125 0  0.78125 0.03125 0  0.8125 0.03125 0  0.84375 0.03125 0  0.875 0.03125 0  0.90625 0.03125 0  0.9375 0.03125 0  0.96875 0.03125 0  1 0.03125 0  0 0.0625 0  0.03125 0.0625 0  0.0625 0.0625 0  0.09375 0.0625 0  0.125 0.0625 0  0.15625 0.0625 0  0.1875 0.0625 0  0.21875 0.0625 0  0.25 0.0625 0  0.28125 0.0625 0  0.3125 0.0625 0  0.34375 0.0625 0  0.375 0.0625 0  0.40625 0.0625 0  0.4375 0.0625 0  0.46875 0.0625 0  0.5 0.0625 0  0.53125 0.0625 0  0.5625 0.0625 0  0.59375 0.0625 0  0.625 0.0625 0  0.65625 0.0625 0  0.6875 0.0625 0  0.71875 0.0625 0  0.75 0.0625 0  0.78125 0.0625 0  0.8125 0.0625 0  0.84375 0.0625 0  0.875 0.0625 0  0.90625 0.0625 0  0.9375 0.0625 0  0.96875 0.0625 0  1 0.0625 0  0 0.09375 0  0.03125 0.09375 0  0.0625 0.09375 0  0.09375 0.09375 0  0.125 0.09375 0  0.15625 0.09375 0  0.1875 0.09375 0  0.21875 0.09375 0  0.25 0.09375 0  0.28125 0.09375 0  0.3125 0.09375 0  0.34375 0.09375 0  0.375 0.09375 0  0.40625 0.09375 0  0.4375 0.09375 0  0.46875 0.09375 0  0.5 0.09375 0  0.53125 0.09375 0  0.5625 0.09375 0  0.59375 0.09375 0  0.625 0.09375 0  0.65625 0.09375 0  0.6875 0.09375 0  0.71875 0.09375 0  0.75 0.09375 0  0.78125 0.09375 0  0.8125 0.09375 0  0.84375 0.09375 0  0.875 0.09375 0  0.90625 0.09375 0  0.9375 0.09375 0  0.96875 0.09375 0  1 0.09375 0  0 0.125 0  0.03125 0.125 0  0.0625 0.125 0  0.09375 0.125 0  0.125 0.125 0  0.15625 0.125 0  0.1875 0.125 0  0.21875 0.125 0  0.25 0.125 0  0.28125 0.125 0  0.3125 0.125 0  0.34375 0.125 0  0.375 0.125 0  0.40625 0.125 0  0.4375 0.125 0  0.46875 0.125 0  0.5 0.125 0  0.53125 0.125 0  0.5625 0.125 0  0.59375 0.125 0  0.625 0.125 0  0.65625 0.125 0  0.6875 0.125 0  0.71875 0.125 0  0.75 0.125 0  0.78125 0.125 0  0.8125 0.125 0  0.84375 0.125 0  0.875 0.125 0  0.90625 0.125 0  0.9375 0.125 0  0.96875 0.125 0  1 0.125 0  0 0.15625 0  0.03125 0.15625 0  0.0625 0.15625 0  0.09375 0.15625 0  0.125 0.15625 0  0.15625 0.15625 0  0.1875 0.15625 0  0.21875 0.15625 0  0.25 0.15625 0  0.28125 0.15625 0  0.3125 0.15625 0  0.34375 0.15625 0  0.375 0.15625 0  0.40625 0.15625 0  0.4375 0.15625 0  0.46875 0.15625 0  0.5 0.15625 0  0.53125 0.15625 0  0.5625 0.15625 0  0.59375 0.15625 0  0.625 0.15625 0  0.65625 0.15625 0  0.6875 0.15625 0  0.71875 0.15625 0  0.75 0.15625 0  0.78125 0.15625 0  0.8125 0.15625 0  0.84375 0.15625 0  0.875 0.15625 0  0.90625 0.15625 0  0.9375 0.15625 0  0.96875 0.15625 0  1 0.15625 0  0 0.1875 0  0.03125 0.1875 0  0.0625 0.1875 0  0.09375 0.1875 0  0.125 0.1875 0  0.15625 0.1875 0  0.1875 0.1875 0  0.21875 0.1875 0  0.25 0.1875 0  0.28125 0.1875 0  0.3125 0.1875 0  0.34375 0.1875 0  0.375 0.1875 0  0.40625 0.1875 0  0.4375 0.1875 0  0.46875 0.1875 0  0.5 0.1875 0  0.53125 0.1875 0  0.5625 0.1875 0  0.59375 0.1875 0  0.625 0.1875 0  0.65625 0.1875 0  0.6875 0.1875 0  0.71875 0.1875 0  0.75 0.1875 0  0.78125 0.1875 0  0.8125 0.1875 0  0.84375 0.1875 0  0.875 0.1875 0  0.90625 0.1875 0  0.9375 0.1875 0  0.96875 0.1875 0  1 0.1875 0  0 0.21875 0  0.03125 0.21875 0  0.0625 0.21875 0  0.09375 0.21875 0  0.125 0.21875 0  0.15625 0.21875 0  0.1875 0.21875 0  0.21875 0.21875 0  0.25 0.21875 0  0.28125 0.21875 0  0.3125 0.21875 0  0.34375 0.21875 0  0.375 0.21875 0  0.40625 0.21875 0  0.4375 0.21875 0  0.46875 0.21875 0  0.5 0.21875 0  0.53125 0.21875 0  0.5625 0.21875 0  0.59375 0.21875 0  0.625 0.21875 0  0.65625 0.21875 0  0.6875 0.21875 0  0.71875 0.21875 0  0.75 0.21875 0  0.78125 0.21875 0  0.8125 0.21875 0  0.84375 0.21875 0  0.875 0.21875 0  0.90625 0.21875 0  0.9375 0.21875 0  0.96875 0.21875 0  1 0.21875 0  0 0.25 0  0.03125 0.25 0  0.0625 0.25 0  0.09375 0.25 0  0.125 0.25 0  0.15625 0.25 0  0.1875 0.25 0  0.21875 0.25 0  0.25 0.25 0  0.28125 0.25 0  0.3125 0.25 0  0.34375 0.25 0  0.375 0.25 0  0.40625 0.25 0  0.4375 0.25 0  0.46875 0.25 0  0.5 0.25 0  0.53125 0.25 0  0.5625 0.25 0  0.59375 0.25 0  0.625 0.25 0  0.65625 0.25 0  0.6875 0.25 0  0.71875 0.25 0  0.75 0.25 0  0.78125 0.25 0  0.8125 0.25 0  0.84375 0.25 0  0.875 0.25 0  0.90625 0.25 0  0.9375 0.25 0  0.96875 0.25 0  1 0.25 0  0 0.28125 0  0.03125 0.28125 0  0.0625 0.28125 0  0.09375 0.28125 0  0.125 0.28125 0  0.15625 0.28125 0  0.1875 0.28125 0  0.21875 0.28125 0  0.25 0.28125 0  0.28125 0.28125 0  0.3125 0.28125 0  0.34375 0.28125 0  0.375 0.28125 0  0.40625 0.28125 0  0.4375 0.28125 0  0.46875 0.28125 0  0.5 0.28125 0  0.53125 0.28125 0  0.5625 0.28125 0  0.59375 0.28125 0  0.625 0.28125 0  0.65625 0.28125 0  0.6875 0.28125 0  0.71875 0.28125 0  0.75 0.28125 0  0.78125 0.28125 0  0.8125 0.28125 0  0.84375 0.28125 0  0.875 0.28125 0  0.90625 0.28125 0  0.9375 0.28125 0  0.96875 0.28125 0  1 0.28125 0  0 0.3125 0  0.03125 0.3125 0  0.0625 0.3125 0  0.09375 0.3125 0  0.125 0.3125 0  0.15625 0.3125 0  0.1875 0.3125 0  0.21875 0.3125 0  0.25 0.3125 0  0.28125 0.3125 0  0.3125 0.3125 0  0.34375 0.3125 0  0.375 0.3125 0  0.40625 0.3125 0  0.4375 0.3125 0  0.46875 0.3125 0  0.5 0.3125 0  0.53125 0.3125 0  0.5625 0.3125 0  0.59375 0.3125 0  0.625 0.3125 0  0.65625 0.3125 0  0.6875 0.3125 0  0.71875 0.3125 0  0.75 0.3125 0  0.78125 0.3125 0  0.8125 0.3125 0  0.84375 0.3125 0  0.875 0.3125 0  0.90625 0.3125 0  0.9375 0.3125 0  0.96875 0.3125 0  1 0.3125 0  0 0.34375 0  0.03125 0.34375 0  0.0625 0.34375 0  0.09375 0.34375 0  0.125 0.34375 0  0.15625 0.34375 0  0.1875 0.34375 0  0.21875 0.34375 0  0.25 0.34375 0  0.28125 0.34375 0  0.3125 0.34375 0  0.34375 0.34375 0  0.375 0.34375 0  0.40625 0.34375 0  0.4375 0.34375 0  0.46875 0.34375 0  0.5 0.34375 0  0.53125 0.34375 0  0.5625 0.34375 0  0.59375 0.34375 0  0.625 0.34375 0  0.65625 0.34375 0  0.6875 0.34375 0  0.71875 0.34375 0  0.75 0.34375 0  0.78125 0.34375 0  0.8125 0.34375 0  0.84375 0.34375 0  0.875 0.34375 0  0.90625 0.34375 0  0.9375 0.34375 0  0.96875 0.34375 0  1 0.34375 0  0 0.375 0  0.03125 0.375 0  0.0625 0.375 0  0.09375 0.375 0  0.125 0.375 0  0.15625 0.375 0  0.1875 0.375 0  0.21875 0.375 0  0.25 0.375 0  0.28125 0.375 0  0.3125 0.375 0  0.34375 0.375 0  0.375 0.375 0  0.40625 0.375 0  0.4375 0.375 0  0.46875 0.375 0  0.5 0.375 0  0.53125 0.375 0  0.5625 0.375 0  0.59375 0.375 0  0.625 0.375 0  0.65625 0.375 0  0.6875 0.375 0  0.71875 0.375 0  0.75 0.375 0  0.78125 0.375 0  0.8125 0.375 0  0.84375 0.375 0  0.875 0.375 0  0.90625 0.375 0  0.9375 0.375 0  0.96875 0.375 0  1 0.375 0  0 0.40625 0  0.03125 0.40625 0  0.0625 0.40625 0  0.09375 0.40625 0  0.125 0.40625 0  0.15625 0.40625 0  0.1875 0.40625 0  0.21875 0.40625 0  0.25 0.40625 0  0.28125 0.40625 0  0.3125 0.40625 0  0.34375 0.40625 0  0.375 0.40625 0  0.40625 0.40625 0  0.4375 0.40625 0  0.46875 0.40625 0  0.5 0.40625 0  0.53125 0.40625 0  0.5625 0.40625 0  0.59375 0.40625 0  0.625 0.40625 0  0.65625 0.40625 0  0.6875 0.40625 0  0.71875 0.40625 0  0.75 0.40625 0  0.78125 0.40625 0  0.8125 0.40625 0  0.84375 0.40625 0  0.875 0.40625 0  0.90625 0.40625 0  0.9375 0.40625 0  0.96875 0.40625 0  1 0.40625 0  0 0.4375 0  0.03125 0.4375 0  0.0625 0.4375 0  0.09375 0.4375 0  0.125 0.4375 0  0.15625 0.4375 0  0.1875 0.4375 0  0.21875 0.4375 0  0.25 0.4375 0  0.28125 0.4375 0  0.3125 0.4375 0  0.34375 0.4375 0  0.375 0.4375 0  0.40625 0.4375 0  0.4375 0.4375 0  0.46875 0.4375 0  0.5 0.4375 0  0.53125 0.4375 0  0.5625 0.4375 0  0.59375 0.4375 0  0.625 0.4375 0  0.65625 0.4375 0  0.6875 0.4375 0  0.71875 0.4375 0  0.75 0.4375 0  0.78125 0.4375 0  0.8125 0.4375 0  0.84375 0.4375 0  0.875 0.4375 0  0.90625 0.4375 0  0.9375 0.4375 0  0.96875 0.4375 0  1 0.4375 0  0 0.46875 0  0.03125 0.46875 0  0.0625 0.46875 0  0.09375 0.46875 0  0.125 0.46875 0  0.15625 0.46875 0  0.1875 0.46875 0  0.21875 0.46875 0  0.25 0.46875 0  0.28125 0.46875 0  0.3125 0.46875 0  0.34375 0.46875 0  0.375 0.46875 0  0.40625 0.46875 0  0.4375 0.46875 0  0.46875 0.46875 0  0.5 0.46875 0  0.53125 0.46875 0  0.5625 0.46875 0  0.59375 0.46875 0  0.625 0.46875 0  0.65625 0.46875 0  0.6875 0.46875 0  0.71875 0.46875 0  0.75 0.46875 0  0.78125 0.46875 0  0.8125 0.46875 0  0.84375 0.46875 0  0.875 0.46875 0  0.90625 0.46875 0  0.9375 0.46875 0  0.96875 0.46875 0  1 0.46875 0  0 0.5 0  0.03125 0.5 0  0.0625 0.5 0  0.09375 0.5 0  0.125 0.5 0  0.15625 0.5 0  0.1875 0.5 0  0.21875 0.5 0  0.25 0.5 0  0.28125 0.5 0  0.3125 0.5 0  0.34375 0.5 0  0.375 0.5 0  0.40625 0.5 0  0.4375 0.5 0  0.46875 0.5 0  0.5 0.5 0  0.53125 0.5 0  0.5625 0.5 0  0.59375 0.5 0  0.625 0.5 0  0.65625 0.5 0  0.6875 0.5 0  0.71875 0.5 0  0.75 0.5 0  0.78125 0.5 0  0.8125 0.5 0  0.84375 0.5 0  0.875 0.5 0  0.90625 0.5 0  0.9375 0.5 0  0.96875 0.5 0  1 0.5 0  0 0.53125 0  0.03125 0.53125 0  0.0625 0.53125 0  0.09375 0.53125 0  0.125 0.53125 0  0.15625 0.53125 0  0.1875 0.53125 0  0.21875 0.53125 0  0.25 0.53125 0  0.28125 0.53125 0  0.3125 0.53125 0  0.34375 0.53125 0  0.375 0.53125 0  0.40625 0.53125 0  0.4375 0.53125 0  0.46875 0.53125 0  0.5 0.53125 0  0.53125 0.53125 0  0.5625 0.53125 0  0.59375 0.53125 0  0.625 0.53125 0  0.65625 0.53125 0  0.6875 0.53125 0  0.71875 0.53125 0  0.75 0.53125 0  0.78125 0.531
[...]
<PointData  Scalars="f_23"> 
<DataArray  type="Float64"  Name="f_23"  format="ascii">0.0000000000000000e+00  0.0000000000000000e+00  0.0000000000000000e+00  0.0000000000000000e+00  0.0000000000000000e+00  0.0000000000000000e+00  0.0000000000000000e+00  0.0000000000000000e+00  0.0000000000000000e+00  0.0000000000000000e+00  0.0000000000000000e+00  0.0000000000000000e+00  0.0000000000000000e+00  0.0000000000000000e+00  0.0000000000000000e+00  0.0000000000000000e+00  0.0000000000000000e+00  0.0000000000000000e+00  0.0000000000000000e+00  0.0000000000000000e+00  0.0000000000000000e+00  0.0000000000000000e+00  0.0000000000000000e+00  0.0000000000000000e+00  0.0000000000000000e+00  0.0000000000000000e+00  0.0000000000000000e+00  0.0000000000000000e+00  0.0000000000000000e+00  0.0000000000000000e+00  0.0000000000000000e+00  0.0000000000000000e+00  0.0000000000000000e+00  4.6632863609670237e-05  4.6633407573241675e-05  4.6633932864420848e-05  4.6634014331411316e-05  4.6634187964502539e-05  4.6634521227713566e-05  4.6634940738634765e-05  4.6635754240297663e-05  4.6635134754469203e-05  4.6634815258746492e-05  4.6634489459701090e-05  4.6632613105532282e-05  4.6632202814696485e-05  4.6632529070366765e-05  4.6632325421864691e-05  4.6632328469433690e-05  4.6632863609669966e-05  4.6633407573240849e-05  4.6633932864419527e-05  4.6634014331409548e-05  4.6634187964500397e-05  4.6634521227711133e-05  4.6634940738632123e-05  4.6635754240294884e-05  4.6635134754466412e-05  4.6634815258743788e-05  4.6634489459698582e-05  4.6632613105530033e-05  4.6632202814694614e-05  4.6632529070365362e-05  4.6632325421863823e-05  4.6632328469433392e-05  4.6632863609670237e-05  9.0275320771749304e-05  9.0276261302188858e-05  9.0276724428680578e-05  9.0277016103696342e-05  9.0277144401648438e-05  9.0277674348815588e-05  9.0278476659292012e-05  9.0279876945831755e-05  9.0279269104350288e-05  9.0278469550503126e-05  9.0277291305106938e-05  9.0274545075617546e-05  9.0273504835907501e-05  9.0273835678737941e-05  9.0273632550160154e-05  9.0274201838116502e-05  9.0275320771748870e-05  9.0276261302187571e-05  9.0276724428678504e-05  9.0277016103693577e-05  9.0277144401645077e-05  9.0277674348811766e-05  9.0278476659287838e-05  9.0279876945827391e-05  9.0279269104345897e-05  9.0278469550498884e-05  9.0277291305103049e-05  9.0274545075614063e-05  9.0273504835904601e-05  9.0273835678735773e-05  9.0273632550158799e-05  9.0274201838116014e-05  9.0275320771749304e-05  1.3090756647468952e-04  1.3090857113159512e-04  1.3090915860664704e-04  1.3090948743715321e-04  1.3090994508022086e-04  1.3091088464698070e-04  1.3091229058313376e-04  1.3091408987538690e-04  1.3091365169885436e-04  1.3091237043043346e-04  1.3091075173970272e-04  1.3090743528770349e-04  1.3090558280833659e-04  1.3090541490418274e-04  1.3090548960345750e-04  1.3090639942294814e-04  1.3090756647468900e-04  1.3090857113159363e-04  1.3090915860664465e-04  1.3090948743715007e-04  1.3090994508021704e-04  1.3091088464697639e-04  1.3091229058312907e-04  1.3091408987538203e-04  1.3091365169884942e-04  1.3091237043042875e-04  1.3091075173969830e-04  1.3090743528769959e-04  1.3090558280833337e-04  1.3090541490418030e-04  1.3090548960345596e-04  1.3090639942294754e-04  1.3090756647468952e-04  1.6853027747896137e-04  1.6853101302809364e-04  1.6853151860818228e-04  1.6853217320588664e-04  1.6853305775407849e-04  1.6853448270038484e-04  1.6853608825316430e-04  1.6853806511368425e-04  1.6853765888005570e-04  1.6853603072151100e-04  1.6853410145427277e-04  1.6853055573182142e-04  1.6852800262785690e-04  1.6852754472237335e-04  1.6852789921269356e-04  1.6852915373136436e-04  1.6853027747896086e-04  1.6853101302809225e-04  1.6853151860818003e-04  1.6853217320588366e-04  1.6853305775407494e-04  1.6853448270038083e-04  1.6853608825315999e-04  1.6853806511367975e-04  1.6853765888005118e-04  1.6853603072150669e-04  1.6853410145426873e-04  1.6853055573181784e-04  1.6852800262785394e-04  1.6852754472237113e-04  1.6852789921269212e-04  1.6852915373136385e-04  1.6853027747896137e-04  2.0314279541999966e-04  2.0314338773406049e-04  2.0314407064881372e-04  2.0314522151081987e-04  2.0314670575088728e-04  2.0314854405021013e-04  2.0315021988328335e-04  2.0315221708815180e-04  2.0315192957758452e-04  2.0314976228771487e-04  2.0314753627052417e-04  2.0314382258284993e-04  2.0314071635300026e-04  2.0313984139304380e-04  2.0314018099024583e-04  2.0314148467696203e-04  2.0314279541999930e-04  2.0314338773405943e-04  2.0314407064881201e-04  2.0314522151081751e-04  2.0314670575088454e-04  2.0314854405020709e-04  2.0315021988328021e-04  2.0315221708814849e-04  2.0315192957758127e-04  2.0314976228771186e-04  2.0314753627052122e-04  2.0314382258284735e-04  2.0314071635299812e-04  2.0313984139304217e-04  2.0314018099024475e-04  2.0314148467696162e-04  2.0314279541999966e-04  2.3474504897681004e-04  2.3474597339736693e-04  2.3474690976053243e-04  2.3474864199215118e-04  2.3475058744698102e-04  2.3475264957811996e-04  2.3475440365460502e-04  2.3475637227567039e-04  2.3475617605930881e-04  2.3475374674229079e-04  2.3475123399209694e-04  2.3474745704178722e-04  2.3474381127257883e-04  2.3474259242468209e-04  2.3474255902850602e-04  2.3474361480500198e-04  2.3474504897680974e-04  2.3474597339736642e-04  2.3474690976053167e-04  2.3474864199215004e-04  2.3475058744697967e-04  2.3475264957811855e-04  2.3475440365460363e-04  2.3475637227566898e-04  2.3475617605930735e-04  2.3475374674228946e-04  2.3475123399209575e-04  2.3474745704178614e-04  2.3474381127257796e-04  2.3474259242468152e-04  2.3474255902850569e-04  2.3474361480500195e-04  2.3474504897681004e-04  2.6333723952833043e-04  2.6333872476756200e-04  2.6334017979765212e-04  2.6334235983902290e-04  2.6334493290929950e-04  2.6334706459858932e-04  2.6334888185071132e-04  2.6335076613384059e-04  2.6335064411253623e-04  2.6334772869911205e-04  2.6334497748189132e-04  2.6334115100803648e-04  2.6333712674303283e-04  2.6333528489392379e-04  2.6333495199170340e-04  2.6333564960401501e-04  2.6333723952833043e-04  2.6333872476756211e-04  2.6334017979765261e-04  2.6334235983902323e-04  2.6334493290929988e-04  2.6334706459858992e-04  2.6334888185071203e-04  2.6335076613384146e-04  2.6335064411253705e-04  2.6334772869911292e-04  2.6334497748189219e-04  2.6334115100803724e-04  2.6333712674303348e-04  2.6333528489392438e-04  2.6333495199170389e-04  2.6333564960401534e-04  2.6333723952833043e-04  2.8891995301847013e-04  2.8892218254856670e-04  2.8892398387802870e-04  2.8892641261469188e-04  2.8892908423228477e-04  2.8893129636029652e-04  2.8893318898085707e-04  2.8893491503498184e-04  2.8893500209881676e-04  2.8893221975737581e-04  2.8892901778385186e-04  2.8892506008363098e-04  2.8892044991603777e-04  2.8891801320299603e-04  2.8891717204457962e-04  2.8891790098407194e-04  2.8891995301847019e-04  2.8892218254856757e-04  2.8892398387803011e-04  2.8892641261469377e-04  2.8892908423228727e-04  2.8893129636029945e-04  2.8893318898086043e-04  2.8893491503498541e-04  2.8893500209882029e-04  2.8893221975737928e-04  2.8892901778385512e-04  2.8892506008363386e-04  2.8892044991604015e-04  2.8891801320299793e-04  2.8891717204458097e-04  2.8891790098407259e-04  2.8891995301847013e-04  3.1149333254413598e-04  3.1149607261239827e-04  3.1149817546632279e-04  3.1150045374694050e-04  3.1150300520014872e-04  3.1150516840127091e-04  3.1150705477177147e-04  3.1150862054619218e-04  3.1150895770738350e-04  3.1150658040348067e-04  3.1150338293552647e-04  3.1149909681103192e-04  3.1149402900147499e-04  3.1149122341127023e-04  3.1149016986640690e-04  3.1149080966456829e-04  3.1149333254413614e-04  3.1149607261239968e-04  3.1149817546632534e-04  3.1150045374694419e-04  3.1150300520015338e-04  3.1150516840127644e-04  3.1150705477177743e-04  3.1150862054619852e-04  3.1150895770738985e-04  3.1150658040348690e-04  3.1150338293553216e-04  3.1149909681103702e-04  3.1149402900147927e-04  3.1149122341127359e-04  3.1149016986640907e-04  3.1149080966456943e-04  3.1149333254413598e-04  3.3105686518820486e-04  3.3105981414495271e-04  3.3106206698121996e-04  3.3106409367767293e-04  3.3106667123224208e-04  3.3106907321473692e-04  3.3107092528254772e-04  3.3107246073680691e-04  3.3107310005503975e-04  3.3107111780487171e-04  3.3106774778058240e-04  3.3106323477544782e-04  3.3105828803831457e-04  3.3105533476420927e-04  3.3105393641042136e-04  3.3105431368156467e-04  3.3105686518820519e-04  3.3105981414495482e-04  3.3106206698122370e-04  3.3106409367767841e-04  3.3106667123224891e-04  3.3106907321474495e-04  3.3107092528255640e-04  3.3107246073681601e-04  3.3107310005504892e-04  3.3107111780488060e-04  3.3106774778059059e-04  3.3106323477545525e-04  3.3105828803832075e-04  3.3105533476421409e-04  3.3105393641042456e-04  3.3105431368156630e-04  3.3105686518820486e-04  3.4761021363085312e-04  3.4761346185073656e-04  3.4761611246575917e-04  3.4761793846237144e-04  3.4762050113192744e-04  3.4762306426988708e-04  3.4762487730895410e-04  3.4762631878096454e-04  3.4762744290493179e-04  3.4762579322396655e-04  3.4762261154965284e-04  3.4761803078270733e-04  3.4761318919819903e-04  3.4760980222487683e-04  3.4760800677188558e-04  3.4760794648680451e-04  3.4761021363085361e-04  3.4761346185073933e-04  3.4761611246576421e-04  3.4761793846237865e-04  3.4762050113193639e-04  3.4762306426989738e-04  3.4762487730896532e-04  3.4762631878097625e-04  3.4762744290494366e-04  3.4762579322397794e-04  3.4762261154966352e-04  3.4761803078271704e-04  3.4761318919820705e-04  3.4760980222488312e-04  3.4760800677188975e-04  3.4760794648680651e-04  3.4761021363085312e-04  3.6115382746154006e-04  3.6115726627214439e-04  3.6116024060927536e-04  3.6116237624167805e-04  3.6116477531515770e-04  3.6116727180958457e-04  3.6116899203300108e-04  3.6117039682134983e-04  3.6117162823452883e-04  3.6117048456182541e-04  3.6116751858390126e-04  3.6116333696757056e-04  3.6115822036442439e-04  3.6115433898031791e-04  3.6115193803858256e-04  3.6115161194755262e-04  3.6115382746154076e-04  3.6115726627214786e-04  3.6116024060928165e-04  3.6116237624168673e-04  3.6116477531516838e-04  3.6116727180959688e-04  3.6116899203301447e-04  3.6117039682136398e-04  3.6117162823454308e-04  3.6117048456183918e-04  3.6116751858391411e-04  3.6116333696758205e-04  3.6115822036443415e-04  3.6115433898032545e-04  3.6115193803858760e-04  3.6115161194755484e-04  3.6115382746154006e-04  3.7168771558376465e-04  3.7169111374304390e-04  3.7169421288278355e-04  3.7169651357962981e-04  3.7169900881233624e-04  3.7170150875908716e-04  3.7170337068356905e-04  3.7170475037304771e-04  3.7170621305742676e-04  3.7170523780023817e-04  3.7170261090365981e-04  3.7169885810808747e-04  3.7169351681287427e-04  3.7168900122568863e-04  3.7168627856200900e-04  3.7168548500389893e-04  3.7168771558376541e-04  3.7169111374304786e-04  3.7169421288279055e-04  3.7169651357963962e-04  3.7169900881234839e-04  3.7170150875910120e-04  3.7170337068358423e-04  3.7170475037306391e-04  3.7170621305744313e-04  3.7170523780025389e-04  3.7170261090367450e-04  3.7169885810810064e-04  3.7169351681288533e-04  3.7168900122569709e-04  3.7168627856201474e-04  3.7168548500390142e-04  3.7168771558376465e-04  3.7921166545007423e-04  3.7921497034083021e-04  3.7921815171544469e-04  3.7922071402564502e-04  3.7922288508107345e-04  3.7922553384536881e-04  3.7922787414796668e-04  3.7922941612238430e-04  3.7923112432911764e-04  3.7923070136270011e-04  3.7922829426325147e-04  3.7922454798178381e-04  3.7921867927342349e-04  3.7921370592452932e-04  3.7921100775827879e-04  3.7920998604890093e-04  3.7921166545007521e-04  3.7921497034083471e-04  3.7921815171545239e-04  3.7922071402565576e-04  3.7922288508108673e-04  3.7922553384538426e-04  3.7922787414798359e-04  3.7922941612240208e-04  3.7923112432913548e-04  3.7923070136271729e-04  3.7922829426326730e-04  3.7922454798179818e-04  3.7921867927343558e-04  3.7921370592453854e-04  3.7921100775828480e-04  3.7920998604890342e-04  3.7921166545007423e-04  3.8372583622388827e-04  3.8372881388216827e-04  3.8373224647052370e-04  3.8373505402237469e-04  3.8373712723782313e-04  3.8373975837813391e-04  3.8374257566322674e-04  3.8374438387460332e-04  3.8374615061378373e-04  3.8374609227475627e-04  3.8374390160451888e-04  3.8374009138544742e-04  3.8373401342621413e-04  3.8372880533123758e-04  3.8372601630781803e-04  3.8372474689789553e-04  3.8372583622388941e-04  3.8372881388217304e-04  3.8373224647053199e-04  3.8373505402238591e-04  3.8373712723783728e-04  3.8373975837815028e-04  3.8374257566324468e-04  3.8374438387462208e-04  3.8374615061380265e-04  3.8374609227477454e-04  3.8374390160453580e-04  3.8374009138546266e-04  3.8373401342622692e-04  3.8372880533124734e-04  3.8372601630782443e-04  3.8372474689789824e-04  3.8372583622388827e-04  3.8523007211523183e-04  3.8523274504833602e-04  3.8523631744772616e-04  3.8523964739048064e-04  3.8524173735924119e-04  3.8524440379775394e-04  3.8524748027236812e-04  3.8524960580420991e-04  3.8525129518288261e-04  3.8525160051135779e-04  3.8524943202901548e-04  3.8524560931742658e-04  3.8523961854666127e-04  3.8523433869746052e-04  3.8523113485697215e-04  3.8522958948592780e-04  3.8523007211523286e-04  3.8523274504834095e-04  3.8523631744773461e-04  3.8523964739049229e-04  3.8524173735925566e-04  3.8524440379777069e-04  3.8524748027238623e-04  3.8524960580422894e-04  3.8525129518290186e-04  3.8525160051137644e-04  3.8524943202903283e-04  3.8524560931744208e-04  3.8523961854667439e-04  3.8523433869747049e-04  3.8523113485697870e-04  3.8522958948593062e-04  3.8523007211523183e-04  3.8372435656591899e-04  3.8372700237229978e-04  3.8373065615709186e-04  3.8373431202906030e-04  3.8373689669727007e-04  3.8373952040998010e-04  3.8374259812185853e-04  3.8374485898881280e-04  3.8374647181711605e-04  3.8374686843722921e-04  3.8374475859001024e-04  3.8374124745145543e-04  3.8373552462770116e-04  3.8372989920320834e-04  3.8372641828517384e-04  3.8372422384022880e-04  3.8372435656591980e-04  3.8372700237230444e-04  3.8373065615710016e-04  3.8373431202907190e-04  3.8373689669728443e-04  3.8373952040999669e-04  3.8374259812187658e-04  3.8374485898883155e-04  3.8374647181713497e-04  3.8374686843724765e-04  3.8374475859002754e-04  3.8374124745147093e-04  3.8373552462771411e-04  3.8372989920321826e-04  3.8372641828518040e-04  3.8372422384023183e-04  3.8372435656591899e-04  3.7920889924338317e-04  3.7921127555564835e-04  3.7921495715126645e-04  3.7921903625439253e-04  3.7922202335296368e-04  3.7922486172095566e-04  3.7922796783796656e-04  3.7923036800123586e-04  3.7923178457818145e-04  3.7923228595431244e-04  3.7923025200932599e-04  3.7922706440165029e-04  3.7922162550001339e-04  3.7921591653110131e-04  3.7921184638243995e-04  3.7920909319593858e-04  3.7920889924338404e-04  3.7921127555565291e-04  3.7921495715127442e-04  3.7921903625440364e-04  3.7922202335297751e-04  3.7922486172097160e-04  3.7922796783798385e-04  3.7923036800125391e-04  3.7923178457819961e-04  3.7923228595433000e-04  3.7923025200934252e-04  3.7922706440166509e-04  3.7922162550002564e-04  3.7921591653111068e-04  3.7921184638244618e-04  3.7920909319594134e-04  3.7920889924338317e-04  3.7168375800570425e-04  3.7168600023620860e-04  3.7168946475781640e-04  3.7169368030367459e-04  3.7169729415664418e-04  3.7170030348697484e-04  3.7170347780930441e-04  3.7170593152503263e-04  3.7170754849555164e-04  3.7170801561056579e-04  3.7170594156708358e-04  3.7170275879138499e-04  3.7169777308986441e-04  3.7169193730300588e-04  3.7168741800188798e-04  3.7168409275044605e-04  3.7168375800570512e-04  3.7168600023621261e-04  3.7168946475782361e-04  3.7169368030368468e-04  3.7169729415665665e-04  3.7170030348698932e-04  3.7170347780932019e-04  3.7170593152504938e-04  3.7170754849556839e-04  3.7170801561058195e-04  3.7170594156709866e-04  3.7170275879139838e-04  3.7169777308987569e-04  3.7169193730301450e-04  3.7168741800189356e-04  3.7168409275044849e-04  3.7168375800570425e-04  3.6114862406737600e-04  3.6115090834713196e-04  3.6115440333317413e-04  3.6115863988202425e-04  3.6116277080512063e-04  3.6116577741057975e-04  3.6116860434870989e-04  3.6117143699859516e-04  3.6117334312402377e-04  3.6117412809998279e-04  3.6117223070456238e-04  3.6116911260511506e-04  3.6116410162577770e-04  3.6115802302705638e-04  3.6115287045263619e-04  3.6114924941057380e-04  3.6114862406737681e-04  3.6115090834713565e-04  3.6115440333318047e-04  3.6115863988203303e-04  3.6116277080513163e-04  3.6116577741059232e-04  3.6116860434872388e-04  3.6117143699860980e-04  3.6117334312403847e-04  3.6117412809999705e-04  3.6117223070457566e-04  3.6116911260512699e-04  3.6116410162578762e-04  3.6115802302706407e-04  3.6115287045264117e-04  3.6114924941057591e-04  3.6114862406737600e-04  3.4760426973950829e-04  3.4760626668017830e-04  3.4760955077733213e-04  3.4761382769004712e-04  3.4761840352083258e-04  3.4762130870115562e-04  3.4762397220367453e-04  3.4762701804798442e-04  3.4762910404513662e-04  3.4762985267880128e-04  3.4762832160592478e-04  3.4762533383564766e-04  3.4762049366251043e-04  3.4761406578300577e-04  3.4760860394647596e-04  3.4760491812626794e-04  3.4760426973950894e-04  3.4760626668018133e-04  3.4760955077733718e-04  3.4761382769005450e-04  3.4761840352084185e-04  3.4762130870116641e-04  3.4762397220368613e-04  3.4762701804799662e-04  3.4762910404514881e-04  3.4762985267881304e-04  3.4762832160593589e-04  3.4762533383565769e-04  3.4762049366251872e-04  3.4761406578301206e-04  3.4760860394647991e-04  3.4760491812626967e-04  3.4760426973950829e-04  3.3105008519783874e-04  3.3105199756387304e-04  3.3105498044491824e-04  3.3105929720467361e-04  3.3106411012246703e-04  3.3106719535665744e-04  3.3106963370605603e-04  3.3107275264577358e-04  3.3107476071086799e-04  3.3107560119977574e-04  3.3107429694784662e-04  3.3107160756719030e-04  3.3106678342059535e-04  3.3106025823796263e-04  3.3105463745461547e-04  3.3105104598773018e-04  3.3105008519783918e-04  3.3105199756387527e-04  3.3105498044492209e-04  3.3105929720467925e-04  3.3106411012247418e-04  3.3106719535666562e-04  3.3106963370606486e-04  3.3107275264578295e-04  3.3107476071087742e-04  3.3107560119978501e-04  3.3107429694785524e-04  3.3107160756719805e-04  3.3106678342060164e-04  3.3106025823796735e-04  3.3105463745461845e-04  3.3105104598773132e-04  3.3105008519783874e-04  3.1148601698231202e-04  3.1148770759497106e-04  3.1149077367057480e-04  3.1149483325525071e-04  3.1149980656049387e-04  3.1150332835323694e-04  3.1150595538319503e-04  3.1150874588280631e-04  3.1151057933349364e-04  3.1151128790056796e-04  3.1151053507110649e-04  3.1150773920332641e-04  3.1150309396574851e-04  3.1149672899176889e-04  3.1149143355096645e-04  3.1148756739051250e-04  3.1148601698231224e-04  3.1148770759497241e-04  3.1149077367057730e-04  3.1149483325525440e-04  3.1149980656049853e-04  3.1150332835324225e-04  3.1150595538320094e-04  3.1150874588281260e-04  3.1151057933350009e-04  3.1151128790057414e-04  3.1151053507111245e-04  3.1150773920333161e-04  3.1150309396575280e-04  3.1149672899177225e-04  3.1149143355096862e-04  3.1148756739051342e-04  3.1148601698231202e-04  2.8891224384435980e-04  2.8891370723328812e-04  2.8891676537400241e-04  2.8892078454103578e-04  2.8892575755937107e-04  2.8892979328550537e-04  2.8893254862900051e-04  2.8893487427731485e-04  2.8893632589038884e-04  2.8893708259754866e-04  2.8893652127754890e-04  2.8893376915916101e-04  2.8892938187859992e-04  2.8892349920899051e-04  2.8891845227382369e-04  2.8891434550960767e-04  2.8891224384435991e-04  2.8891370723328882e-04  2.8891676537400344e-04  2.8892078454103751e-04  2.8892575755937329e-04  2.8892979328550808e-04  2.8893254862900355e-04  2.8893487427731815e-04  2.8893632589039236e-04  2.8893708259755213e-04  2.8893652127755221e-04  2.8893376915916388e-04  2.8892938187860225e-04  2.8892349920899235e-04  2.8891845227382499e-04  2.8891434550960826e-04  2.8891224384435980e-04  2.6332886554200115e-04  2.6333004560689151e-04  2.6333302341615550e-04  2.6333670667227991e-04  2.6334159084860409e